ITEM: TIMESTEP
20000
ITEM: NUMBER OF ATOMS
6512
ITEM: BOX BOUNDS pp pp pp
0.0000000000000000e+00 3.2625599999999997e+02
0.0000000000000000e+00 3.2625599999999997e+02
0.0000000000000000e+00 3.2625599999999997e+02
ITEM: ATOMS type x y z c_pe 
1 130.905 123.657 82.6974 -3.31776 
1 132.803 121.484 83.0505 -3.15055 
1 134.912 123.746 82.8537 -3.40093 
1 136.931 122.001 83.2911 -3.1892 
1 126.791 127.382 82.0355 -3.11497 
1 128.954 125.813 82.2678 -3.33341 
1 130.932 127.805 82.2969 -3.44959 
1 132.841 125.723 82.6735 -3.46712 
1 134.675 128.04 82.5673 -3.4612 
1 136.695 125.986 82.8639 -3.48259 
1 138.517 128.173 83.0507 -3.49288 
1 122.751 130.022 83.4336 -3.16078 
1 124.784 131.885 83.2538 -3.45485 
1 128.911 129.798 81.8756 -3.39384 
1 127.083 131.983 81.6042 -3.17203 
1 132.637 130.233 82.2561 -3.44835 
1 130.702 132.091 82.0077 -3.49788 
1 134.571 132.239 82.285 -3.46948 
1 136.456 129.983 82.4941 -3.43584 
1 138.313 132.294 82.6848 -3.47697 
1 140.578 130.438 83.0804 -3.42112 
1 142.161 132.756 83.3463 -3.19055 
1 124.216 135.918 83.3708 -3.18484 
1 128.706 134.112 81.7296 -3.31324 
1 126.495 133.904 83.4483 -3.68428 
1 132.327 134.282 82.1759 -3.47924 
1 130.485 136.151 82.3127 -3.26518 
1 134.412 136.054 82.2249 -3.13651 
1 136.576 134.341 82.321 -3.45007 
1 140.113 134.554 83.0264 -3.35118 
1 138.343 136.426 82.9312 -3.23348 
1 98.7524 94.0152 86.6481 -3.19244 
1 102.747 93.9544 86.6039 -3.35808 
1 107.122 93.7991 86.528 -3.32719 
1 95.041 98.0659 86.7649 -3.35049 
1 96.7752 96.0661 86.738 -3.35476 
1 100.811 95.8385 86.3462 -3.64085 
1 98.9107 97.8924 86.3706 -3.71145 
1 101.182 98.108 84.4367 -3.33203 
1 104.969 95.5658 86.3611 -3.71793 
1 102.965 96 84.7133 -3.24046 
1 103.266 97.9408 86.4982 -3.83465 
1 105.019 97.6772 84.3583 -3.44041 
1 106.843 95.976 84.5198 -3.19007 
1 107.002 97.9375 86.4559 -3.85284 
1 109.056 95.9444 86.2197 -3.58174 
1 108.822 97.9531 84.322 -3.2942 
1 111.271 97.5509 86.164 -3.52181 
1 93.2072 100.112 86.7302 -3.21462 
1 97.1504 100.017 86.477 -3.7317 
1 95.2007 102.142 86.2548 -3.66432 
1 97.1938 101.987 84.5524 -3.33368 
1 101.056 99.8217 86.3867 -3.84125 
1 99.0514 99.9029 84.5449 -3.34429 
1 99.2276 102.025 86.4258 -3.88054 
1 101.235 101.68 84.217 -3.42189 
1 105.23 99.9688 86.3157 -3.76667 
1 103.269 99.7584 84.5025 -3.50476 
1 105.437 101.955 84.2613 -3.41431 
1 103.177 101.762 86.2789 -3.84564 
1 106.983 99.7823 84.344 -3.47025 
1 109.456 99.7784 86.2421 -3.82953 
1 109.34 101.707 84.1897 -3.46369 
1 107.388 101.793 86.3003 -3.90037 
1 111.315 99.8184 84.3399 -3.14239 
1 113.211 99.4554 86.2261 -3.47933 
1 111.59 101.763 86.0926 -3.78984 
1 115.198 101.416 86.185 -3.17014 
1 93.4847 104.277 86.338 -3.34741 
1 97.2239 104.141 86.4517 -3.88138 
1 95.3831 104.203 84.3801 -3.10668 
1 101.325 103.775 86.1648 -3.76179 
1 99.1912 104.017 84.4558 -3.47465 
1 99.4242 106.148 86.2115 -3.84468 
1 101.491 106.002 84.3782 -3.49063 
1 105.473 103.859 86.3126 -3.90429 
1 103.097 103.927 84.4295 -3.39187 
1 105.62 105.924 84.2444 -3.42236 
1 103.476 105.807 86.2736 -3.81372 
1 109.531 103.715 86.2012 -3.88325 
1 107.524 103.75 84.2582 -3.4702 
1 107.583 105.835 86.3804 -3.89267 
1 109.625 105.735 84.2876 -3.49052 
1 111.446 103.696 84.2281 -3.20964 
1 113.638 103.599 86.027 -3.55224 
1 111.694 105.469 86.2249 -3.79191 
1 115.489 105.612 86.4116 -3.22586 
1 93.3631 108.556 86.6093 -3.20458 
1 97.4101 106.239 84.3733 -3.26806 
1 95.2615 106.352 86.3267 -3.68978 
1 97.632 108.386 86.0009 -3.62117 
1 101.586 107.983 86.3525 -3.79957 
1 99.6812 108.196 84.3714 -3.34817 
1 101.671 109.955 84.488 -3.37396 
1 105.547 107.764 86.2425 -3.79317 
1 103.581 107.787 84.4727 -3.52732 
1 105.73 109.615 84.2872 -3.47573 
1 107.762 107.874 84.4102 -3.53675 
1 109.668 107.556 86.3515 -3.84204 
1 109.916 109.622 84.5902 -3.35464 
1 107.541 109.816 86.2916 -3.72617 
1 111.652 107.69 84.2731 -3.13805 
1 113.623 107.383 86.2684 -3.44848 
1 112.019 109.591 86.1869 -3.53049 
1 95.5239 110.359 86.3349 -3.3159 
1 97.2877 112.421 86.465 -3.31595 
1 99.4414 110.383 86.1682 -3.68932 
1 101.585 112.267 86.1997 -3.6769 
1 103.698 110.11 86.3103 -3.77347 
1 105.989 111.94 86.2811 -3.75406 
1 103.844 111.713 84.4255 -3.14594 
1 107.942 111.515 84.392 -3.19877 
1 109.843 111.685 86.0679 -3.50422 
1 99.5601 114.192 86.6895 -3.22613 
1 103.868 113.814 86.4038 -3.3366 
1 108.018 113.852 86.2595 -3.34386 
1 128.599 117.475 86.7324 -3.55908 
1 130.965 117.437 85.3567 -3.21186 
1 130.716 115.662 87.136 -3.30592 
1 128.7 119.273 84.7741 -3.30482 
1 126.443 119.414 86.474 -3.56233 
1 132.722 119.566 84.8426 -3.55746 
1 130.635 119.578 86.8552 -3.86949 
1 130.474 121.397 84.5396 -3.68251 
1 134.944 117.827 85.4104 -3.202 
1 132.856 117.696 87.1496 -3.75376 
1 134.688 119.77 87.1819 -3.86458 
1 136.885 119.855 85.247 -3.56893 
1 138.998 118.111 85.8502 -3.17744 
1 140.875 120.221 85.9686 -3.34052 
1 120.331 123.877 87.117 -3.40553 
1 122.626 123.669 85.468 -3.44755 
1 124.888 123.398 84.1813 -3.22171 
1 124.493 121.603 85.938 -3.54159 
1 128.56 123.644 84.1901 -3.70458 
1 126.832 121.461 84.4131 -3.3516 
1 128.479 121.528 86.3549 -3.80471 
1 126.56 123.603 86.128 -3.83587 
1 132.69 123.574 84.7021 -3.8303 
1 130.426 123.8 86.2997 -3.91747 
1 132.531 121.612 86.6568 -3.9082 
1 134.721 121.58 84.9361 -3.77755 
1 136.44 123.93 85.0526 -3.80577 
1 134.459 123.912 87.0524 -3.89107 
1 138.613 123.986 83.4935 -3.33876 
1 138.868 122.036 85.1402 -3.59998 
1 138.416 124.071 87.1194 -3.9339 
1 140.739 124.182 85.4181 -3.69894 
1 142.896 122.211 86.0005 -3.29162 
1 144.317 124.383 85.8614 -3.21711 
1 120.959 126.026 85.0988 -3.03177 
1 120.061 127.624 86.8986 -3.64654 
1 124.772 127.724 83.5163 -3.43223 
1 122.627 127.818 85.1493 -3.59632 
1 124.453 125.778 85.6387 -3.83421 
1 128.641 127.773 83.9917 -3.85135 
1 126.663 125.632 83.8964 -3.66048 
1 126.402 127.934 85.9279 -3.87325 
1 128.423 125.967 86.2168 -3.90542 
1 132.476 128.035 84.3475 -3.85008 
1 130.523 125.789 84.42 -3.79928 
1 130.45 127.926 86.1808 -3.91303 
1 132.449 125.827 86.3398 -3.90492 
1 134.728 126.054 84.7968 -3.80527 
1 136.332 128.092 84.7172 -3.8042 
1 134.252 128.057 86.723 -3.92034 
1 136.207 126.034 87.0422 -3.89468 
1 138.287 126.173 85.1394 -3.88289 
1 138.209 128.198 87.0772 -3.89235 
1 140.343 128.369 85.2652 -3.8323 
1 142.286 128.338 83.556 -3.22076 
1 140.549 126.388 83.5008 -3.32762 
1 142.566 126.405 85.4052 -3.67568 
1 140.396 126.305 87.2488 -3.90657 
1 142.314 128.734 87.2166 -3.83613 
1 144.226 128.659 85.5732 -3.33929 
1 120.461 129.764 84.9977 -3.32412 
1 118.305 129.715 86.7914 -3.18819 
1 120.09 131.78 86.9057 -3.61986 
1 122.303 131.848 85.2007 -3.56327 
1 124.448 129.866 85.4082 -3.83533 
1 122.172 129.797 87.2251 -3.93318 
1 128.388 131.887 83.8837 -3.81866 
1 126.642 129.805 83.4927 -3.80395 
1 126.25 131.979 85.6047 -3.90238 
1 128.298 129.982 85.9944 -3.90996 
1 130.349 130.105 84.1822 -3.87345 
1 132.408 132.189 84.1776 -3.89154 
1 130.13 132.168 86.1501 -3.9182 
1 132.314 130.166 86.2098 -3.90698 
1 134.51 130.157 84.4031 -3.88617 
1 136.188 132.37 84.425 -3.84857 
1 136.263 130.248 86.6589 -3.90314 
1 134.093 132.386 86.3943 -3.88953 
1 138.192 130.322 84.6584 -3.86616 
1 140.093 132.505 84.7594 -3.76344 
1 138.049 132.58 86.8023 -3.90457 
1 140.046 130.706 87.1248 -3.88151 
1 142.32 130.658 85.1394 -3.76922 
1 119.915 135.546 86.8839 -3.34238 
1 122.01 133.89 87.1002 -3.78968 
1 122.025 135.856 84.9804 -3.29996 
1 123.958 133.947 85.0844 -3.71345 
1 123.761 135.998 87.1005 -3.90148 
1 128.162 136.168 83.5574 -3.67078 
1 128.103 134.194 85.7002 -3.90806 
1 126.097 136.055 85.3251 -3.80509 
1 130.309 134.066 83.9245 -3.77774 
1 131.983 134.422 85.9752 -3.91278 
1 129.964 136.357 85.7124 -3.88493 
1 134.31 134.367 84.1268 -3.83318 
1 135.931 134.491 86.5845 -3.88511 
1 134.095 136.511 86.0813 -3.85932 
1 137.969 134.436 84.7134 -3.8326 
1 139.771 134.73 86.9515 -3.89861 
1 143.943 132.918 85.4316 -3.3422 
1 141.885 132.907 87.2073 -3.83648 
1 142.079 134.655 85.2262 -3.56033 
1 123.882 138.01 85.1439 -3.55016 
1 121.618 137.875 87.1113 -3.58761 
1 123.452 140.007 87.0063 -3.5741 
1 125.972 137.938 83.546 -3.2101 
1 127.944 138.378 85.4758 -3.78602 
1 125.747 140.152 85.2921 -3.46544 
1 125.471 138.197 87.2129 -3.84492 
1 132.443 136.698 83.9929 -3.7262 
1 130.172 138.373 84.0515 -3.47495 
1 131.926 138.481 86.1304 -3.78006 
1 135.997 136.781 84.0933 -3.65267 
1 134.085 138.768 84.4512 -3.56542 
1 135.776 138.788 86.4514 -3.80082 
1 137.787 136.646 86.4528 -3.94499 
1 140.108 136.783 84.7935 -3.62861 
1 137.757 138.648 84.484 -3.4605 
1 139.687 138.751 86.714 -3.78182 
1 141.87 136.851 86.905 -3.7782 
1 141.916 138.812 85.182 -3.00331 
1 105.389 143.965 86.7053 -3.36755 
1 108.177 143.544 86.3379 -3.26246 
1 112.545 143.964 86.7319 -3.14076 
1 127.71 142.101 85.7222 -3.23485 
1 132.018 140.615 84.3822 -3.21745 
1 129.772 140.387 85.8128 -3.67658 
1 131.778 142.766 86.1839 -3.34713 
1 136.031 140.877 84.817 -3.21088 
1 133.717 140.875 86.2574 -3.70689 
1 135.669 142.909 86.6379 -3.35375 
1 137.887 140.77 86.5225 -3.6555 
1 139.727 142.903 87.0685 -3.18822 
1 141.526 140.882 87.0214 -3.46035 
1 101.265 147.506 85.9157 -3.57528 
1 103.279 145.683 86.0062 -3.42899 
1 103.325 147.923 84.189 -3.17676 
1 105.205 147.666 86.113 -3.76415 
1 107.39 146.027 86.5252 -3.7191 
1 108.536 145.897 84.254 -2.96484 
1 110.256 145.741 86.3819 -3.68331 
1 110.103 147.894 84.4313 -3.31187 
1 114.29 146.274 86.7003 -3.31197 
1 94.7257 151.092 87.228 -3.35138 
1 96.9162 151.392 85.7471 -3.21468 
1 96.9145 149.233 87.0973 -3.62747 
1 99.14 149.42 85.42 -3.41238 
1 101.482 149.818 84.0377 -3.23039 
1 100.791 151.68 85.645 -3.70722 
1 103.256 149.832 86.0989 -3.85912 
1 105.098 150.182 84.0969 -3.42795 
1 106.874 150.095 86.3526 -3.82357 
1 107.392 148.418 84.6095 -3.43227 
1 109.237 148.247 86.7738 -3.84825 
1 109.166 150.434 84.7239 -3.58434 
1 112.074 147.991 86.4141 -3.72503 
1 111.946 150.203 84.5635 -3.32326 
1 111.098 150.487 86.861 -3.81074 
1 113.985 150.001 86.3291 -3.64989 
1 116.01 148.253 86.7902 -3.12844 
1 94.4296 155.404 87.1247 -3.34453 
1 98.5659 153.662 85.636 -3.59409 
1 100.943 153.653 84.004 -3.22524 
1 102.976 152.12 83.9645 -3.4584 
1 102.591 153.903 85.993 -3.80046 
1 104.884 152.2 86.056 -3.86514 
1 104.906 154.13 84.1629 -3.5017 
1 106.844 154.25 86.331 -3.8645 
1 106.943 152.268 84.2978 -3.45845 
1 108.821 152.302 86.6125 -3.88265 
1 108.916 154.503 84.64 -3.46919 
1 110.767 154.549 86.728 -3.87467 
1 110.913 152.781 84.7252 -3.53584 
1 113.064 154.872 85.1633 -3.48916 
1 112.805 152.606 87.1213 -3.75595 
1 113.671 152.27 84.7444 -3.21203 
1 115.532 152.168 86.7964 -3.46672 
1 96.5915 155.677 85.4532 -3.23272 
1 98.1814 157.869 85.3969 -3.5104 
1 100.322 155.816 85.6591 -3.79801 
1 100.827 157.774 83.9598 -3.2055 
1 102.372 157.909 85.9821 -3.76494 
1 102.732 155.862 83.8348 -3.47011 
1 104.632 156.02 86.0161 -3.81327 
1 104.509 157.944 84.1272 -3.512 
1 106.454 158.178 86.183 -3.86121 
1 106.5 156.231 84.1998 -3.43185 
1 108.693 156.46 86.416 -3.81567 
1 108.619 158.279 84.5821 -3.4848 
1 110.911 156.664 84.694 -3.45768 
1 110.525 158.595 86.682 -3.8361 
1 112.672 158.445 85.045 -3.34066 
1 112.646 156.724 87.1265 -3.84686 
1 114.849 156.819 85.5494 -3.20704 
1 114.564 158.904 87.0639 -3.65697 
1 94.0477 159.443 87.0367 -3.34113 
1 96.1672 159.379 85.3678 -3.21383 
1 97.9992 161.561 85.5805 -3.399 
1 95.646 161.514 87.0154 -3.54632 
1 100.174 159.635 85.5521 -3.66407 
1 102.025 161.982 85.666 -3.67843 
1 102.424 159.976 83.7628 -3.23595 
1 104.259 160.054 85.9197 -3.83294 
1 104.295 162.105 84.2825 -3.20623 
1 106.048 162.299 86.1348 -3.70168 
1 106.45 160.216 84.36 -3.46575 
1 108.324 160.349 86.5849 -3.79105 
1 108.388 162.422 84.8296 -3.23196 
1 110.357 162.557 86.6917 -3.67238 
1 110.454 160.477 84.8402 -3.3283 
1 112.454 160.722 86.8027 -3.70666 
1 114.037 162.89 87.2014 -3.3064 
1 97.5781 163.841 87.0366 -3.53596 
1 99.8265 163.805 85.5974 -3.15839 
1 104.141 164.241 85.9548 -3.45962 
1 105.874 166.397 86.1529 -3.13989 
1 107.962 164.456 86.4184 -3.49429 
1 112.238 164.755 87.0244 -3.18608 
1 98.2686 89.921 90.4539 -3.39511 
1 100.771 89.5816 89.4139 -3.08316 
1 103.091 89.8118 90.2202 -3.48391 
1 104.878 90.3291 88.1851 -3.04276 
1 106.832 89.7327 90.3326 -3.47492 
1 111.078 89.6647 90.1462 -3.16734 
1 94.7361 94.0612 90.5146 -3.55585 
1 96.5252 91.8248 90.5187 -3.52397 
1 96.8712 93.8498 88.5424 -3.55204 
1 98.5883 93.935 90.4681 -3.85039 
1 98.9332 91.8692 88.5153 -3.40869 
1 100.702 91.9843 90.5477 -3.82691 
1 100.715 94.0004 88.5409 -3.80805 
1 105.09 91.725 90.3265 -3.73807 
1 102.727 92.0176 88.5334 -3.59581 
1 103.002 93.7812 90.6444 -3.89903 
1 105.037 93.7142 88.4285 -3.84268 
1 107.047 91.7583 88.3199 -3.472 
1 107.182 93.6732 90.2425 -3.91919 
1 109.057 91.604 90.3394 -3.77532 
1 109.236 93.6002 88.1788 -3.65383 
1 111.147 91.5495 88.4485 -3.16025 
1 111.243 93.6698 90.0595 -3.85354 
1 113.133 91.5799 89.9636 -3.52209 
1 113.339 93.7422 88.2742 -3.29637 
1 115.429 93.2872 90.1356 -3.53588 
1 91.088 98.2856 90.3269 -3.58558 
1 92.9203 96.0752 90.4587 -3.56743 
1 93.1726 98.1006 88.559 -3.55614 
1 94.9909 95.9216 88.7465 -3.5534 
1 94.8958 98.1699 90.5453 -3.90378 
1 96.9232 96.0637 90.6079 -3.89142 
1 97.0253 98.1423 88.5702 -3.86995 
1 98.8823 96.0565 88.5092 -3.86856 
1 100.848 95.9763 90.6348 -3.89904 
1 99.111 98.1954 90.7216 -3.89954 
1 101.081 97.728 88.4136 -3.89791 
1 105.009 95.7237 90.5311 -3.89865 
1 103.013 95.7932 88.6218 -3.90113 
1 102.981 97.9757 90.5849 -3.92424 
1 105.038 97.7887 88.5494 -3.90325 
1 107.039 95.8668 88.3959 -3.9121 
1 107.234 97.7435 90.505 -3.91675 
1 109.23 95.6809 90.2413 -3.92053 
1 109.141 97.7709 88.2877 -3.90997 
1 111.196 95.7081 88.0267 -3.6676 
1 111.364 97.6729 90.2282 -3.914 
1 113.414 95.493 90.2954 -3.85499 
1 113.398 97.3097 88.278 -3.71567 
1 115.654 95.6058 88.5718 -3.1799 
1 115.641 97.4738 90.3463 -3.69812 
1 117.275 95.1635 90.6015 -3.23358 
1 89.2536 100.453 90.3606 -3.34533 
1 91.0626 100.242 88.3432 -3.29214 
1 92.911 100.287 90.5432 -3.85809 
1 91.2568 102.391 90.3243 -3.74268 
1 93.0623 102.123 88.4545 -3.70509 
1 95.1335 100.282 88.5337 -3.84875 
1 97.0904 100.174 90.4963 -3.90649 
1 95.2423 102.352 90.4178 -3.90723 
1 97.2857 102.088 88.3768 -3.90163 
1 99.2259 99.8438 88.4468 -3.91591 
1 101.167 100.14 90.5435 -3.87587 
1 99.142 102.367 90.3072 -3.88576 
1 101.173 102.04 88.503 -3.89689 
1 105.295 99.8236 90.6053 -3.91741 
1 103.166 99.9918 88.3788 -3.91953 
1 103.249 101.938 90.4298 -3.89556 
1 105.372 101.725 88.3852 -3.89259 
1 109.327 99.808 90.4283 -3.89759 
1 107.282 99.8203 88.3804 -3.88689 
1 107.47 101.798 90.3579 -3.88228 
1 109.589 101.548 88.2006 -3.88445 
1 111.377 99.5039 88.227 -3.85681 
1 111.591 101.531 90.195 -3.91362 
1 113.552 99.384 90.1242 -3.88864 
1 113.611 101.246 88.232 -3.8079 
1 115.538 99.2436 88.0844 -3.57061 
1 115.758 101.414 90.2319 -3.81671 
1 117.339 101.379 88.2989 -3.3298 
1 117.558 99.4121 90.1893 -3.58271 
1 119.398 101.356 90.0798 -3.18616 
1 89.5656 104.65 90.4226 -3.35404 
1 91.4938 104.289 88.3054 -3.37031 
1 93.2919 104.294 90.3452 -3.88663 
1 95.1796 104.288 88.3293 -3.86093 
1 97.1815 104.398 90.2451 -3.89553 
1 101.552 104.085 90.5319 -3.89007 
1 99.4012 104.239 88.3115 -3.89168 
1 101.507 105.968 88.2122 -3.887 
1 105.493 103.8 90.5419 -3.91253 
1 103.361 103.743 88.2966 -3.91673 
1 105.459 105.746 88.4554 -3.92439 
1 103.658 105.951 90.5785 -3.83713 
1 107.526 103.757 88.3486 -3.9217 
1 109.506 103.653 90.4058 -3.89595 
1 107.593 105.875 90.3149 -3.91328 
1 109.638 105.645 88.3203 -3.89642 
1 111.53 103.583 88.2923 -3.89835 
1 113.702 105.53 88.2302 -3.81426 
1 111.64 105.557 90.2324 -3.88538 
1 113.61 103.502 90.2224 -3.90874 
1 115.665 103.399 87.9459 -3.72609 
1 115.8 105.561 90.1234 -3.85083 
1 117.563 105.607 88.2228 -3.3451 
1 117.729 103.556 90.1 -3.7829 
1 119.65 105.475 89.9336 -3.1701 
1 89.3539 108.534 90.4638 -3.33156 
1 93.2158 106.375 88.1885 -3.72379 
1 91.5107 106.502 90.1812 -3.73751 
1 93.4568 108.422 90.1262 -3.84011 
1 91.3132 108.492 88.4271 -3.32826 
1 97.394 106.249 88.1437 -3.90491 
1 95.25 106.313 90.2287 -3.88875 
1 97.3808 108.365 90.3663 -3.87379 
1 95.487 108.325 88.3086 -3.85036 
1 99.4234 106.236 90.3342 -3.90052 
1 101.38 108.093 90.2781 -3.88795 
1 99.4167 108.376 87.9745 -3.85266 
1 105.537 107.969 90.4095 -3.86989 
1 103.613 107.96 88.2015 -3.91226 
1 105.572 109.928 88.2437 -3.84438 
1 103.561 109.956 90.199 -3.89505 
1 107.375 107.913 88.2627 -3.88594 
1 109.7 107.808 90.259 -3.9161 
1 109.907 109.686 88.1687 -3.91838 
1 111.738 107.656 88.3274 -3.89054 
1 111.872 109.797 90.1385 -3.91134 
1 114.011 109.903 88.4065 -3.66124 
1 113.989 107.677 90.0687 -3.88568 
1 115.863 107.685 88.0529 -3.5517 
1 116.125 109.682 90.2851 -3.74059 
1 118.001 107.435 90.0956 -3.56368 
1 91.2984 110.658 90.1447 -3.52529 
1 93.5782 110.446 88.3692 -3.58956 
1 93.6463 112.619 90.3238 -3.58086 
1 97.4088 110.289 88.2685 -3.86715 
1 95.4439 110.569 90.4542 -3.84453 
1 97.516 112.481 90.4147 -3.89248 
1 95.5121 112.422 88.3988 -3.55492 
1 101.511 110.215 88.0828 -3.91675 
1 99.4923 110.165 90.2287 -3.90547 
1 101.592 112.329 90.2124 -3.89439 
1 99.3895 112.271 88.2568 -3.80149 
1 105.694 112.092 89.8918 -3.90273 
1 103.569 112.114 88.2381 -3.80679 
1 107.736 110.09 90.1375 -3.90132 
1 108.016 111.893 88.0612 -3.83016 
1 109.934 111.952 90.0842 -3.91865 
1 111.855 111.782 87.8816 -3.66407 
1 114.048 111.813 90.2437 -3.79577 
1 113.962 113.457 88.2462 -3.3558 
1 116.049 111.563 88.4315 -3.23915 
1 116.322 113.763 89.9696 -3.51222 
1 117.958 111.748 90.3395 -3.19711 
1 128.269 113.744 90.864 -3.38694 
1 95.3604 114.893 90.3268 -3.52202 
1 97.2322 114.385 88.3668 -3.52784 
1 97.6715 116.495 90.1679 -3.58426 
1 99.5405 114.561 90.0042 -3.91172 
1 101.675 114.35 88.1171 -3.73451 
1 101.686 116.433 90.245 -3.7961 
1 99.805 116.563 88.1872 -3.36526 
1 103.783 114.33 90.1332 -3.88636 
1 105.849 114.112 87.9815 -3.747 
1 105.812 116.171 90.117 -3.73278 
1 103.619 116.213 88.2878 -3.54013 
1 109.997 113.935 87.8964 -3.63321 
1 107.839 114.154 89.8674 -3.9026 
1 108.197 116.047 87.9997 -3.41609 
1 110.116 116.332 90.0146 -3.68094 
1 112.026 113.891 90.1913 -3.87391 
1 112.107 115.781 88.2411 -3.16017 
1 114.198 115.766 89.9667 -3.5325 
1 128.365 115.461 88.8192 -3.51022 
1 126.044 115.84 90.8475 -3.57413 
1 130.45 113.878 89.3206 -3.18863 
1 132.311 115.884 89.2536 -3.77497 
1 134.733 114.014 89.5664 -3.30549 
1 134.872 115.864 87.5063 -3.29885 
1 136.588 116.073 89.7369 -3.77208 
1 138.959 116.309 87.9463 -3.35539 
1 138.88 114.474 89.9688 -3.21001 
1 140.787 116.408 90.1016 -3.58807 
1 101.717 118.642 88.8767 -3.06361 
1 99.654 118.313 90.3897 -3.47146 
1 106.014 117.699 88.1262 -3.01949 
1 104.035 118.545 90.1319 -3.54634 
1 107.722 118.031 89.93 -3.39085 
1 112.35 117.737 90.2574 -3.21585 
1 121.856 119.979 89.6232 -3.54331 
1 124.237 119.77 88.3196 -3.59493 
1 124.013 117.814 90.2351 -3.57435 
1 128.285 119.72 88.5029 -3.91244 
1 126.219 117.692 88.6228 -3.56563 
1 126.138 119.79 90.3829 -3.89581 
1 128.081 117.738 90.6011 -3.86288 
1 132.381 119.745 89.0752 -3.90076 
1 130.236 117.644 88.8699 -3.86809 
1 130.096 119.977 90.837 -3.90713 
1 134.471 117.845 89.5358 -3.85718 
1 136.347 120.087 89.3287 -3.89829 
1 136.68 117.888 87.4483 -3.75715 
1 138.386 119.995 87.5285 -3.77716 
1 138.507 118.353 89.6847 -3.90046 
1 140.522 120.35 89.7621 -3.90811 
1 140.874 118.197 87.9083 -3.56084 
1 142.74 120.248 87.9477 -3.56847 
1 142.793 118.416 90.0411 -3.55351 
1 144.556 120.449 90.2205 -3.53313 
1 118.101 123.808 89.2712 -3.18188 
1 119.886 121.79 89.2107 -3.53603 
1 121.768 124.021 89.5512 -3.91123 
1 124.211 123.781 87.79 -3.93857 
1 122.196 121.817 87.5833 -3.5724 
1 123.885 121.977 89.9836 -3.90983 
1 128.432 123.789 88.2537 -3.91937 
1 126.293 121.664 88.1688 -3.91294 
1 126.072 123.882 89.9463 -3.91466 
1 128.215 121.957 90.378 -3.90477 
1 132.108 123.902 88.6527 -3.85017 
1 130.501 121.888 88.6549 -3.86225 
1 130.141 124.017 90.5858 -3.88546 
1 131.996 121.96 90.9447 -3.88475 
1 136.491 122.027 87.2645 -3.90629 
1 134.104 121.907 89.113 -3.92694 
1 136.232 124.099 89.2703 -3.88696 
1 133.912 124.269 90.8181 -3.91905 
1 138.408 122.106 89.3093 -3.86385 
1 140.257 124.419 89.3492 -3.88606 
1 140.497 122.202 87.7098 -3.84614 
1 142.307 124.441 87.595 -3.81274 
1 142.523 122.355 89.9065 -3.89787 
1 144.302 124.675 89.651 -3.87663 
1 144.547 122.538 87.8846 -3.52097 
1 146.288 122.95 89.9055 -3.55359 
1 146.293 124.869 87.789 -3.31367 
1 147.989 124.914 89.9957 -3.34951 
1 115.683 128.165 90.8965 -3.21201 
1 117.432 126.001 90.9137 -3.66109 
1 117.823 127.892 88.8515 -3.48168 
1 119.615 125.853 89.0472 -3.74821 
1 122.136 125.77 87.4282 -3.80293 
1 121.819 127.782 89.2668 -3.92238 
1 124.218 127.735 87.5977 -3.89653 
1 123.979 125.861 89.8691 -3.8896 
1 128.248 128.001 88.2398 -3.90705 
1 126.223 125.881 87.9042 -3.90204 
1 128.091 126.072 90.2481 -3.90248 
1 125.876 127.806 89.9475 -3.88016 
1 132.008 128.094 88.5434 -3.82678 
1 130.247 125.958 88.3154 -3.92034 
1 129.988 128.294 90.2889 -3.8244 
1 131.754 126.205 90.6631 -3.89768 
1 133.923 126.042 88.7602 -3.89319 
1 136.029 128.314 88.8443 -3.9081 
1 133.76 128.327 90.5326 -3.86991 
1 135.919 126.356 91.011 -3.9072 
1 138.128 126.399 89.2509 -3.88223 
1 140.021 128.591 89.1179 -3.8849 
1 138.022 128.634 90.922 -3.86018 
1 142.191 126.737 89.3715 -3.91168 
1 144.279 128.837 89.406 -3.91394 
1 144.303 126.77 87.5796 -3.77795 
1 146.252 126.91 89.7265 -3.77749 
1 115.662 131.516 90.4547 -3.27206 
1 117.806 131.53 88.6235 -3.49606 
1 119.878 129.757 88.8961 -3.8445 
1 117.772 129.819 90.8615 -3.73855 
1 124.005 131.922 87.3559 -3.9048 
1 121.685 131.852 89.2782 -3.90487 
1 123.806 130.021 89.4823 -3.91778 
1 127.935 132.122 87.8524 -3.91225 
1 126.041 129.866 87.6755 -3.87701 
1 125.833 131.993 89.806 -3.90671 
1 127.935 130.171 90.0874 -3.90062 
1 131.959 132.343 88.1803 -3.87005 
1 130.158 130.016 88.1935 -3.88224 
1 129.823 132.299 89.9997 -3.92131 
1 132.087 130.442 90.4093 -3.88327 
1 134.089 130.373 88.3116 -3.86472 
1 135.663 130.452 90.6566 -3.92035 
1 135.768 132.505 88.6324 -3.89473 
1 133.725 132.644 90.611 -3.87282 
1 137.99 130.496 88.8241 -3.87581 
1 137.414 132.587 90.8114 -3.90617 
1 139.786 132.652 89.0598 -3.89691 
1 141.977 130.714 89.1328 -3.9154 
1 144.171 130.916 87.3511 -3.82875 
1 146.315 129.064 87.5386 -3.39804 
1 145.95 131.091 89.7251 -3.82219 
1 147.938 131.125 87.9945 -3.04515 
1 148.045 129.023 89.7323 -3.4544 
1 117.34 133.557 90.6285 -3.70586 
1 115.458 135.259 90.363 -3.16001 
1 117.663 135.613 88.6852 -3.3512 
1 119.641 133.677 88.7662 -3.77287 
1 119.268 135.8 90.7924 -3.86435 
1 121.63 136.043 89.0257 -3.87897 
1 123.65 133.924 89.4398 -3.91037 
1 125.586 136.171 89.5552 -3.90244 
1 125.869 134.04 87.6976 -3.89656 
1 127.69 136.359 87.5478 -3.91111 
1 127.675 134.33 89.7711 -3.8773 
1 129.741 134.428 87.9392 -3.92109 
1 131.698 134.578 90.2752 -3.88325 
1 131.668 136.483 87.8421 -3.86069 
1 129.548 136.302 90.0448 -3.86732 
1 133.582 134.397 88.3695 -3.85109 
1 135.442 134.784 90.4352 -3.89775 
1 137.706 134.717 88.7781 -3.9037 
1 139.505 134.958 90.9187 -3.90819 
1 144.045 134.944 87.342 -3.70385 
1 143.82 133.065 89.2479 -3.86819 
1 141.632 134.794 89.0346 -3.8714 
1 146.054 132.984 87.512 -3.43799 
1 145.994 134.884 89.4576 -3.76076 
1 148.136 133.15 89.8435 -3.4244 
1 101.48 139.617 90.3879 -3.20078 
1 105.335 140.005 90.4994 -3.4559 
1 107.808 139.483 90.2221 -3.35107 
1 112.356 140.097 90.6922 -3.32548 
1 117.151 137.597 90.6264 -3.59995 
1 119.238 137.743 88.6717 -3.55212 
1 121.11 139.84 88.8271 -3.55802 
1 118.937 139.919 90.6115 -3.55678 
1 121.037 138.188 90.9192 -3.86945 
1 123.478 137.968 89.2492 -3.88533 
1 125.24 140.092 89.3104 -3.89638 
1 127.488 138.226 89.542 -3.89827 
1 127.432 140.135 87.4894 -3.84224 
1 129.651 138.274 87.8082 -3.89982 
1 131.419 138.483 90.0528 -3.91275 
1 135.475 136.831 88.4029 -3.8899 
1 133.429 136.748 90.2653 -3.88915 
1 133.519 138.863 88.1916 -3.84071 
1 135.373 138.769 90.4365 -3.91728 
1 137.355 136.715 90.6315 -3.85626 
1 139.673 136.802 88.8348 -3.89649 
1 137.684 138.748 88.5273 -3.90438 
1 139.356 138.85 90.7386 -3.91005 
1 143.594 139.054 87.3511 -3.4626 
1 141.526 138.865 88.9994 -3.88485 
1 143.501 136.923 89.4213 -3.83403 
1 145.752 137.147 87.9351 -3.22115 
1 145.428 139.152 89.3172 -3.50118 
1 147.633 137.161 89.8055 -3.1604 
1 97.0834 143.26 89.7109 -3.60317 
1 99.2541 141.34 90.1703 -3.58051 
1 99.3849 143.361 88.058 -3.33836 
1 101.399 141.647 88.3747 -3.20503 
1 100.99 143.742 90.1416 -3.85627 
1 103.343 141.786 90.3832 -3.78849 
1 105.441 141.965 88.6411 -3.5148 
1 103.22 143.696 88.1963 -3.67868 
1 107.324 142.123 90.7652 -3.81053 
1 108.257 141.642 88.3866 -3.34651 
1 107.402 144.157 88.8002 -3.85676 
1 110.032 141.517 90.1844 -3.7051 
1 112.452 142.042 88.7413 -3.33865 
1 110.261 143.557 88.2722 -3.76351 
1 111.864 144 90.5184 -3.88751 
1 114.346 142.275 90.7339 -3.54309 
1 120.748 141.965 90.8481 -3.5978 
1 123.106 141.846 89.0154 -3.58559 
1 125.141 144.005 89.2073 -3.34232 
1 122.742 143.958 90.8798 -3.31241 
1 125.247 142.141 87.3229 -3.58276 
1 127.261 142.365 89.3271 -3.81769 
1 129.29 140.462 89.5951 -3.92332 
1 129.518 142.614 87.7035 -3.74987 
1 131.471 140.649 87.9427 -3.87327 
1 131.223 142.717 89.9019 -3.85194 
1 133.524 142.961 88.2293 -3.73724 
1 135.557 140.715 88.393 -3.91492 
1 133.309 140.89 90.0535 -3.89808 
1 135.223 142.997 90.379 -3.90911 
1 137.461 142.97 88.5645 -3.76474 
1 139.626 141.064 88.8428 -3.80728 
1 137.421 140.926 90.5185 -3.91148 
1 139.165 143.181 90.878 -3.80851 
1 141.296 143.243 89.1166 -3.5368 
1 143.233 141.169 89.1149 -3.57562 
1 93.166 147.15 89.1366 -3.18528 
1 95.139 147.104 87.3106 -3.1709 
1 94.9001 145.151 89.3588 -3.56574 
1 97.0453 145.083 87.6365 -3.28357 
1 96.7927 147.306 89.4334 -3.84947 
1 98.9441 147.43 87.3759 -3.68759 
1 98.86 145.581 89.6458 -3.87837 
1 101.165 145.402 87.8256 -3.70488 
1 100.727 147.625 89.7949 -3.92294 
1 105.061 144.191 90.4857 -3.89342 
1 102.868 145.692 90.059 -3.86825 
1 105.081 146.008 88.3379 -3.81891 
1 103.057 147.706 88.0461 -3.90287 
1 109.056 144.339 91.0215 -3.90258 
1 106.998 146.3 90.7862 -3.92584 
1 109.168 146.343 88.8036 -3.91341 
1 112.039 145.921 88.3991 -3.8476 
1 113.751 146.093 90.6645 -3.91534 
1 114.38 144.257 88.7545 -3.55462 
1 116.016 146.354 88.9428 -3.57383 
1 127.266 144.164 87.4033 -3.16477 
1 128.851 144.595 89.7359 -3.67061 
1 131.347 144.639 88.0696 -3.35825 
1 130.91 146.658 90.0196 -3.09198 
1 135.439 144.878 88.4183 -3.35176 
1 133.132 145.061 90.1249 -3.76904 
1 135.257 146.794 90.5787 -3.21872 
1 139.273 144.962 89.0662 -3.19096 
1 137.309 145.167 90.5529 -3.59724 
1 90.2834 151.08 90.8128 -3.18963 
1 92.5777 151.125 88.9121 -3.37606 
1 92.2631 149.104 90.904 -3.70407 
1 94.564 149.323 89.1443 -3.6958 
1 98.6278 151.477 87.6264 -3.82479 
1 96.3175 151.393 89.2873 -3.84438 
1 98.5708 149.344 89.4333 -3.87614 
1 100.691 149.521 87.7328 -3.88063 
1 100.387 151.737 89.7999 -3.87612 
1 102.489 149.989 89.8866 -3.90304 
1 104.726 148.004 90.2996 -3.90084 
1 104.834 149.989 88.3228 -3.8708 
1 106.598 150.175 90.5401 -3.89841 
1 106.901 148.093 88.5438 -3.91642 
1 108.769 150.437 88.7371 -3.91481 
1 108.826 148.423 90.8513 -3.90564 
1 111.026 148.542 89.0864 -3.91769 
1 112.98 150.904 89.0811 -3.87317 
1 110.632 150.611 90.8955 -3.90673 
1 113.86 148.41 88.607 -3.87736 
1 115.934 150.35 88.7459 -3.80131 
1 115.762 148.212 90.8999 -3.83523 
1 117.685 148.428 89.2158 -3.43381 
1 119.181 150.555 89.2526 -3.11599 
1 90.163 155.078 90.7852 -3.1815 
1 94.3032 153.115 88.9801 -3.70697 
1 92.3611 154.972 88.8771 -3.33969 
1 91.9625 153.071 90.8467 -3.74558 
1 93.9285 155.284 91.0081 -3.8972 
1 96.3091 153.515 87.3 -3.74558 
1 98.1635 153.738 89.4552 -3.87612 
1 96.0693 155.485 89.3664 -3.87268 
1 100.282 153.679 87.6459 -3.87408 
1 102.38 153.889 89.9694 -3.89702 
1 102.724 151.932 87.9258 -3.90288 
1 104.483 152.023 90.184 -3.88796 
1 104.514 154.291 88.2666 -3.8836 
1 106.46 154.414 90.5571 -3.8865 
1 106.683 152.366 88.3426 -3.90948 
1 108.651 154.475 88.6157 -3.90687 
1 108.514 152.507 90.6858 -3.91863 
1 110.7 152.614 88.7958 -3.88657 
1 112.567 154.684 89.1682 -3.92484 
1 114.905 154.913 87.2968 -3.75333 
1 114.845 153.034 89.1934 -3.85009 
1 116.861 155.248 89.6822 -3.74173 
1 117.539 152.578 89.0565 -3.61636 
1 117.642 154.463 87.3459 -3.16923 
1 119.5 154.486 89.5222 -3.35673 
1 94.0069 157.508 89.1897 -3.81192 
1 91.7923 157.098 90.7588 -3.65396 
1 96.0229 157.578 87.3089 -3.73213 
1 98.3561 155.659 87.5948 -3.85144 
1 97.8524 157.632 89.4462 -3.91547 
1 100.251 155.907 89.7449 -3.8852 
1 100.211 157.819 87.7822 -3.87103 
1 101.752 158.043 89.9882 -3.81835 
1 102.238 155.876 87.7218 -3.85194 
1 104.066 156.111 90.2747 -3.87996 
1 104.049 158.013 88.0529 -3.90795 
1 106.005 158.251 90.2309 -3.92093 
1 106.494 156.115 88.4066 -3.8773 
1 108.3 156.424 90.7242 -3.88407 
1 108.161 158.42 88.4659 -3.91229 
1 110.059 158.596 90.6831 -3.86371 
1 110.438 156.669 88.8646 -3.90765 
1 112.467 158.818 88.999 -3.93555 
1 116.785 157.056 87.6945 -3.59516 
1 114.476 156.863 89.3361 -3.92036 
1 116.276 159.047 89.5612 -3.84558 
1 118.668 157.329 89.7348 -3.6731 
1 91.9976 159.382 88.7662 -3.09782 
1 91.4253 161.283 91.0133 -3.46498 
1 93.551 161.434 88.7909 -3.52785 
1 95.8548 159.722 89.1436 -3.88365 
1 98.0989 159.616 87.4671 -3.83547 
1 97.5557 161.915 89.039 -3.90545 
1 99.6026 159.818 89.7101 -3.86896 
1 101.893 160.082 87.7737 -3.90618 
1 99.8537 161.963 87.4699 -3.8145 
1 101.666 161.971 89.7167 -3.89759 
1 103.791 160.069 89.8406 -3.89507 
1 105.739 162.302 90.0892 -3.93538 
1 103.856 162.278 87.8944 -3.92984 
1 105.992 160.274 88.0888 -3.90931 
1 108.033 160.478 90.5899 -3.87842 
1 108.047 162.4 88.2057 -3.88712 
1 109.564 162.868 90.5594 -3.86706 
1 110.117 160.526 88.7187 -3.90657 
1 111.89 162.758 88.7518 -3.79157 
1 111.742 160.935 90.9938 -3.88783 