6512
Atoms. Timestep: 20000
1 108.031 165.683 118.977
1 103.739 165.541 118.646
1 101.6 167.242 118.063
1 99.7182 165.041 117.885
1 95.5793 164.373 117.168
1 112.303 162.008 119.494
1 110.054 163.827 119.404
1 108.29 161.751 119.683
1 103.804 163.166 120.417
1 105.723 161.304 120.926
1 106.048 163.736 119.203
1 104.299 161.384 118.647
1 99.57 162.927 119.755
1 102.034 161.359 120.251
1 102.081 163.459 118.456
1 100.38 161.073 118.034
1 98.1234 160.733 119.657
1 97.826 162.87 117.783
1 96.0245 160.492 117.633
1 94.0966 162.239 117.245
1 92.3444 160.147 117.295
1 114.394 160.21 120.193
1 112.697 157.776 120.339
1 108.075 159.415 121.34
1 110.242 157.932 121.53
1 110.529 159.862 119.708
1 108.605 157.524 119.472
1 103.862 159.359 120.816
1 105.964 157.746 121.425
1 106.379 159.369 119.14
1 104.56 157.188 119.122
1 100.256 158.919 119.99
1 102.183 157.048 120.658
1 102.463 159.122 118.554
1 100.618 156.749 118.293
1 96.2227 158.49 119.469
1 98.3707 156.749 120.174
1 98.4479 158.634 117.939
1 96.5316 156.541 117.782
1 94.235 158.336 117.551
1 92.3383 156.357 117.272
1 114.669 155.866 120.156
1 112.847 153.718 120.275
1 108.431 155.778 121.801
1 110.654 153.658 121.828
1 110.694 155.617 120.128
1 108.721 153.508 119.937
1 104.451 155.116 121.213
1 106.757 153.578 121.669
1 106.672 155.536 119.685
1 104.853 153.14 119.393
1 100.452 154.946 120.579
1 102.393 152.945 120.944
1 102.699 154.996 118.931
1 100.881 152.747 118.593
1 96.654 154.803 119.818
1 98.5313 152.897 120.236
1 98.7492 154.687 118.172
1 96.8049 152.612 118.033
1 94.5361 154.59 117.689
1 92.9442 152.17 117.532
1 113.282 149.682 120.307
1 108.513 151.532 121.792
1 110.924 151.479 120.208
1 109.136 149.508 119.999
1 104.549 151.316 121.286
1 106.833 149.429 121.596
1 106.974 151.343 119.626
1 104.965 149.342 119.455
1 100.532 151.023 120.682
1 102.737 149.349 120.994
1 102.925 151.089 118.874
1 101.149 148.91 118.719
1 96.8451 150.727 119.908
1 98.8518 148.897 120.373
1 99.0554 150.761 118.472
1 97.2182 148.547 118.323
1 95.1128 150.429 117.791
1 111.616 147.813 119.998
1 109.485 145.659 119.897
1 104.737 147.599 121.193
1 107.313 147.215 119.976
1 105.4 145.425 119.426
1 103.095 147.121 119.205
1 101.576 144.929 118.716
1 99.4004 146.8 118.591
1 138.918 139.649 117.245
1 135.114 139.512 117.125
1 133.322 141.368 117.023
1 131.327 139.424 116.941
1 129.382 141.453 116.507
1 127.621 139.335 116.851
1 124.846 139.873 117.16
1 139.378 135.734 117.568
1 135.242 137.453 119.242
1 137.201 135.434 119.411
1 137.261 137.559 117.582
1 135.334 135.558 117.312
1 131.231 137.226 118.998
1 133.381 135.426 119.188
1 133.264 137.429 117.343
1 131.474 135.275 117.155
1 127.454 136.956 118.602
1 129.193 135.192 119.052
1 129.481 137.191 116.962
1 127.598 134.892 116.716
1 125.756 134.986 118.541
1 125.516 137.013 116.612
1 123.549 135.06 116.613
1 122.93 137.836 117.041
1 139.224 133.987 119.618
1 141.281 133.854 117.826
1 139.589 131.624 117.864
1 135.21 133.327 119.403
1 137.362 131.504 119.547
1 137.413 133.432 117.427
1 135.597 131.436 117.452
1 131.527 133.227 119.202
1 133.425 131.383 119.358
1 133.545 133.427 117.287
1 131.871 131.109 117.171
1 127.559 133.088 119.091
1 129.95 130.907 119.092
1 129.75 133.109 117.248
1 127.929 131.028 117.111
1 123.626 133.15 118.321
1 125.649 130.547 118.674
1 125.741 132.783 116.88
1 123.799 130.844 116.496
1 121.703 132.771 116.383
1 119.895 130.881 116.217
1 139.134 129.483 119.546
1 141.441 129.664 117.926
1 139.785 127.298 118.136
1 135.565 129.314 119.529
1 137.276 127.396 119.917
1 137.661 129.589 117.331
1 136.107 127.282 117.391
1 131.809 129.16 119.384
1 133.725 127.229 119.371
1 133.856 129.199 117.381
1 131.826 126.91 117.213
1 127.7 128.889 118.911
1 129.822 127.056 119.201
1 129.872 129.028 117.282
1 128.006 126.842 117.079
1 123.629 128.81 118.208
1 125.76 126.945 118.635
1 125.863 128.771 116.656
1 123.839 126.679 116.705
1 121.613 128.591 116.371
1 141.851 125.48 117.758
1 140.172 123.181 117.735
1 135.598 125.475 119.526
1 138.115 125.33 117.838
1 136.337 123.25 117.567
1 131.776 124.868 119.293
1 134.081 123.168 119.105
1 133.814 125.198 117.302
1 132.042 122.814 117.474
1 127.804 125.085 119.021
1 129.745 122.942 119.038
1 129.955 124.807 117.243
1 127.885 122.996 117.252
1 125.864 124.848 116.967
1 123.782 123.008 116.544
1 121.705 124.771 116.391
1 138.227 121.348 117.553
1 136.417 119.19 117.375
1 134.451 121.106 117.597
1 132.16 119.243 117.059
1 130.045 120.771 117.091
1 128.151 118.973 116.699
1 125.896 120.668 116.626
1 110.245 112.369 118.133
1 108.265 112.461 119.895
1 108.261 114.363 118.037
1 106.213 112.604 118.198
1 104.113 112.602 120.016
1 104.085 114.584 118.088
1 102.02 112.52 118.453
1 100.171 114.488 118.371
1 98.3 112.772 117.985
1 114.094 107.755 118.233
1 110.016 110.375 119.895
1 111.72 108.086 119.928
1 112.135 109.94 118.104
1 109.899 107.964 118.071
1 106.131 110.628 120.139
1 108.133 108.395 120.037
1 107.92 110.306 118.128
1 106.11 108.387 118.246
1 102.194 110.432 120.145
1 104.372 108.571 120.504
1 104.226 110.524 118.435
1 101.982 108.451 118.427
1 100.051 108.602 120.341
1 100.005 110.652 118.364
1 97.9114 108.77 118.592
1 96.198 110.711 118.318
1 94.1602 108.87 118.331
1 116.052 105.704 117.97
1 114.148 103.723 118.11
1 109.716 106.139 120.2
1 111.592 104.07 120.041
1 112.106 106.039 118.38
1 109.777 104.067 118.09
1 105.979 106.337 120.464
1 107.971 104.11 120.236
1 107.697 106.155 118.198
1 105.844 104.274 118.49
1 102.049 106.428 120.485
1 103.943 104.563 120.409
1 103.94 106.452 118.359
1 101.876 104.5 118.548
1 98.2255 106.435 120.36
1 100.23 104.325 120.659
1 100.045 106.507 118.407
1 98.0047 104.489 118.542
1 96.177 104.687 120.534
1 95.9495 106.669 118.708
1 93.9461 104.674 118.654
1 115.988 101.488 118.122
1 113.853 99.8651 118.419
1 109.798 101.952 120.25
1 111.701 99.8648 120.269
1 111.848 102.006 118.25
1 109.872 99.9737 118.319
1 105.732 102.388 120.457
1 107.891 100.121 120.391
1 107.775 102.142 118.44
1 105.641 100.268 118.645
1 102.034 102.261 120.467
1 103.759 100.156 120.62
1 103.82 102.368 118.467
1 101.746 100.286 118.641
1 97.9796 102.724 120.604
1 99.8494 100.701 120.46
1 99.9092 102.506 118.389
1 97.7483 100.751 118.702
1 95.8461 102.849 118.782
1 94.031 100.691 118.464
1 109.667 98.1677 120.263
1 111.862 97.8054 118.61
1 109.644 95.9467 118.651
1 105.869 98.0367 120.692
1 107.795 96.1897 120.573
1 107.538 98.0603 118.507
1 105.755 95.788 118.833
1 101.742 98.5345 120.788
1 103.49 96.5151 120.568
1 103.59 98.2121 118.539
1 101.334 96.2206 118.905
1 99.6445 98.439 118.907
1 97.4429 96.4114 118.46
1 95.9987 98.5654 118.569
1 107.58 94.0091 118.74
1 103.576 94.3274 118.701
1 99.196 94.2157 118.47
1 108.355 169.685 114.831
1 105.986 169.757 116.196
1 106.343 171.671 114.381
1 104.1 169.583 114.535
1 101.855 169.1 116.288
1 102.02 170.925 114.261
1 100.23 168.979 113.999
1 95.9883 168.468 112.975
1 112.259 165.961 115.75
1 108.024 167.765 117.083
1 110.313 165.941 117.561
1 110.311 167.95 115.326
1 108.41 165.634 115.503
1 104.094 167.615 116.707
1 105.974 165.727 117.133
1 106.287 167.483 114.867
1 104.457 165.29 114.774
1 99.8602 166.939 115.964
1 102.157 165.311 116.363
1 102.359 167.282 114.372
1 100.347 164.983 114.162
1 95.6365 166.479 114.931
1 97.8878 164.734 115.612
1 98.2275 166.935 113.772
1 96.356 164.414 113.38
1 93.6603 164.21 115.244
1 93.9354 166.325 113.117
1 92.2131 164.217 112.942
1 116.741 161.999 116.497
1 112.409 164.062 117.833
1 114.65 162.024 118.178
1 114.64 164.11 116.138
1 112.865 161.834 116.151
1 108.171 163.66 117.418
1 110.407 161.849 117.562
1 110.626 163.802 115.73
1 108.842 161.493 115.384
1 104.452 163.369 116.815
1 106.54 161.386 117.176
1 106.675 163.472 115.182
1 104.89 161.083 115.007
1 100.4 163.23 116.228
1 102.5 161.197 116.461
1 102.726 162.993 114.438
1 100.767 160.763 114.452
1 96.1718 162.328 115.451
1 98.422 160.848 116.043
1 98.6854 162.669 113.895
1 96.8332 160.467 113.411
1 92.2378 162.044 115.048
1 94.3377 160.107 115.403
1 94.4958 162.338 113.367
1 92.7558 160.151 113.179
1 90.461 160.312 114.91
1 90.5825 161.964 112.792
1 88.7332 159.78 112.796
1 116.571 160.304 118.567
1 118.88 160.049 116.747
1 117.088 158.024 116.843
1 112.814 159.631 118.13
1 114.848 157.993 118.612
1 114.934 159.75 116.361
1 113.142 157.666 116.206
1 108.741 159.703 117.593
1 110.937 157.59 118.167
1 111.092 159.716 115.767
1 109.324 157.511 115.643
1 104.718 158.937 116.967
1 106.829 157.151 117.357
1 107.031 159.17 115.337
1 105.05 156.792 115.113
1 100.692 158.73 116.342
1 102.875 156.825 116.967
1 102.987 158.805 114.793
1 101.172 156.654 114.444
1 96.5683 158.479 115.738
1 98.7764 156.752 115.953
1 98.9171 158.68 113.931
1 96.9497 156.357 113.954
1 92.2831 158.302 115.336
1 94.5631 156.488 115.651
1 94.9457 158.287 113.431
1 92.7861 156.207 113.37
1 90.5537 155.998 114.903
1 90.7748 158.116 113.13
1 88.9551 155.478 112.464
1 117.004 155.844 118.53
1 119.131 156.437 116.794
1 117.827 153.889 116.739
1 112.933 155.727 118.374
1 115.319 153.807 118.475
1 115.281 155.846 116.654
1 113.45 153.687 116.34
1 109.038 155.373 117.677
1 111.211 153.533 118.237
1 111.378 155.505 116.053
1 109.465 153.524 115.664
1 104.98 154.976 117.205
1 107.129 153.282 117.526
1 107.474 155.39 115.442
1 105.435 153.044 115.201
1 100.883 154.722 116.486
1 103.254 152.995 116.835
1 103.294 154.874 114.833
1 101.634 152.698 114.423
1 96.8144 154.457 115.919
1 99.1371 152.727 116.222
1 99.0338 154.428 114.004
1 97.2112 152.296 114.022
1 92.744 154.187 115.533
1 94.7969 152.271 115.819
1 94.9672 154.14 113.601
1 93.2666 151.907 113.533
1 91.2239 151.968 115.145
1 90.964 153.762 113.269
1 89.6315 151.365 113.043
1 117.212 151.838 118.603
1 117.709 149.885 116.746
1 113.496 151.644 118.628
1 115.427 149.733 118.508
1 115.646 151.781 116.562
1 113.775 149.836 116.395
1 109.36 151.396 117.97
1 111.477 149.644 118.146
1 111.623 151.625 115.938
1 109.857 149.361 115.901
1 105.412 151.104 117.219
1 107.621 149.42 117.829
1 107.797 151.313 115.538
1 105.954 149.124 115.287
1 101.154 150.719 116.48
1 103.481 149.009 117.016
1 103.612 150.804 114.796
1 101.726 148.737 114.748
1 97.141 150.551 115.994
1 99.3495 148.661 116.609
1 99.5204 150.544 114.247
1 97.7741 148.467 114.285
1 93.1236 150.107 115.746
1 95.357 148.234 116.065
1 95.3652 150.062 113.858
1 93.8644 147.76 113.717
1 91.7962 147.625 115.395
1 91.6124 149.56 113.498
1 90.0799 147.443 113.211
1 113.743 147.609 118.411
1 115.905 147.793 116.476
1 114.312 145.565 116.472
1 109.675 147.56 117.976
1 111.767 145.49 118.353
1 111.945 147.487 116.18
1 110.095 145.296 116.037
1 105.662 147.389 117.591
1 107.744 145.376 117.831
1 107.873 147.264 115.609
1 106.018 145.173 115.488
1 101.575 146.87 116.714
1 103.774 145.052 117.249
1 103.963 146.93 115.025
1 102.123 144.652 115.117
1 97.6212 146.416 116.309
1 99.724 144.563 116.784
1 99.7747 146.527 114.567
1 98.0539 144.253 114.378
1 93.8631 145.984 115.958
1 95.8481 144.179 116.04
1 96.0349 146.248 114.128
1 94.1727 144.067 113.805
1 91.9358 145.888 113.486
1 139.155 143.778 113.424
1 136.997 143.58 114.942
1 137.03 145.4 112.856
1 135.218 143.369 112.862
1 133.424 143.456 115.032
1 133.664 145.384 112.559
1 131.598 143.485 112.741
1 129.543 143.469 114.766
1 129.447 145.499 112.807
1 127.557 143.155 112.687
1 126.815 143.8 115.25
1 126.697 145.615 113.305
1 124.798 143.684 113.081
1 109.919 143.736 118.152
1 112.165 143.701 116.272
1 110.337 141.696 116.167
1 105.982 143.452 117.772
1 108.173 143.311 115.933
1 106.548 141.268 115.829
1 102.045 142.776 117.098
1 104.294 142.898 115.433
1 102.512 140.893 115.227
1 97.9149 142.415 116.137
1 100.359 142.572 114.801
1 98.5215 140.604 114.465
1 96.1139 142.184 114.217
1 143.319 140.164 113.842
1 139.071 141.847 115.532
1 141.141 139.81 115.624
1 141.107 141.942 113.5
1 139.637 139.842 113.455
1 135.264 141.54 115.061
1 137.278 139.458 115.354
1 137.428 141.441 113.307
1 135.537 139.388 113.089
1 131.53 141.467 114.866
1 133.345 139.338 115.135
1 133.387 141.436 112.865
1 131.524 139.213 112.722
1 127.573 141.279 114.777
1 129.577 139.213 114.724
1 129.793 141.284 112.842
1 127.703 139.24 112.614
1 124.764 141.683 115.261
1 125.719 139.081 114.64
1 125.502 141.096 112.614
1 123.628 138.928 112.52
1 122.843 139.733 115.069
1 122.894 141.82 113.152
1 121.049 139.622 112.946
1 143.243 137.952 115.915
1 145.021 138.057 114.005
1 143.772 135.732 114.16
1 139.433 137.697 115.651
1 141.586 135.832 115.77
1 141.637 137.825 113.807
1 139.646 135.752 113.623
1 135.506 137.385 115.239
1 137.549 135.478 115.396
1 137.621 137.486 113.328
1 135.618 135.557 113.187
1 131.451 137.331 114.889
1 133.568 135.45 115.163
1 133.606 137.447 113.06
1 131.881 135.265 112.874
1 127.664 137.063 114.874
1 129.785 135.097 114.892
1 129.696 137.019 112.838
1 127.805 134.994 112.832
1 123.73 137.002 114.525
1 125.658 134.86 114.739
1 125.821 137.077 112.655
1 123.852 134.802 112.431
1 120.962 137.554 114.987
1 121.876 134.859 114.483
1 121.703 136.951 112.328
1 119.944 134.602 112.241
1 119.165 135.401 114.606
1 143.638 133.906 116.162
1 145.407 132.117 116.098
1 145.844 133.944 114.062
1 143.816 131.905 113.962
1 139.643 133.666 115.652
1 141.987 131.826 116.052
1 141.7 133.84 113.936
1 139.964 131.696 113.696
1 135.47 133.375 115.233
1 137.684 131.661 115.469
1 137.758 133.603 113.34
1 136.017 131.39 113.262
1 131.689 133.093 115.139
1 133.748 131.176 115.136
1 133.828 133.296 113.095
1 131.845 131.055 113.019
1 127.815 132.893 114.717
1 129.934 130.812 115.013
1 129.92 132.957 112.936
1 128.014 130.816 112.647
1 123.852 132.95 114.698
1 125.941 130.884 114.646
1 125.843 132.884 112.498
1 124.011 130.75 112.49
1 119.891 132.605 114.333
1 122.016 130.754 114.457
1 121.993 132.704 112.348
1 119.896 130.924 112.26
1 117.922 130.815 113.853
1 117.698 132.869 111.848
1 115.997 130.78 111.816
1 143.842 129.812 116.049
1 145.93 130.175 114.196
1 144.197 127.714 114.176
1 139.833 129.692 115.806
1 141.745 127.682 116.104
1 142.058 129.647 113.939
1 140.345 127.458 113.648
1 135.856 129.293 115.326
1 138.188 127.477 115.478
1 138.127 129.524 113.439
1 136.138 127.181 113.451
1 131.99 129.007 115.201
1 134.166 127.073 115.305
1 134.025 129.143 113.109
1 132.075 126.929 113.076
1 128.007 128.761 114.92
1 130.056 126.98 115.059
1 130.11 128.878 112.969
1 128.168 126.793 112.949
1 123.897 128.723 114.617
1 126.044 126.733 114.739
1 126.006 128.636 112.814
1 123.826 126.722 112.625
1 119.892 129.044 114.255
1 121.766 126.737 114.585
1 122.056 128.675 112.463
1 119.955 126.732 112.402
1 118.237 126.855 114.317
1 117.811 128.717 112.191
1 143.996 125.732 116
1 146.186 125.799 114.123
1 144.32 123.725 114.024
1 140.051 125.542 115.713
1 142.276 123.425 116.1
1 142.396 125.573 114.059
1 140.653 123.331 113.84
1 136.439 125.164 115.527
1 138.419 123.275 115.674
1 138.431 125.268 113.484
1 136.319 123.328 113.538
1 132.139 125.006 115.048
1 134.282 123.259 115.572
1 134.232 125.152 113.259
1 132.527 123.076 113.148
1 128.108 124.892 115.045
1 130.116 122.828 115.144
1 130.198 124.799 112.914
1 128.288 122.83 112.925
1 124.046 124.868 114.597
1 126.099 122.806 114.958
1 126.307 124.728 112.778
1 124.166 122.677 112.787
1 119.849 124.641 114.331
1 121.869 122.691 114.714
1 122.056 124.573 112.768
1 120.178 122.606 112.438
1 118.271 124.514 112.342
1 140.446 121.281 115.82
1 142.649 121.478 113.91
1 140.74 119.367 113.847
1 136.29 121.22 115.478
1 138.446 119.349 115.482
1 138.538 121.317 113.69
1 136.511 119.129 113.65
1 132.284 121.235 115.308
1 134.4 119.159 115.631
1 134.436 121.151 113.347
1 132.542 118.935 113.246
1 128.236 120.937 114.92
1 130.241 118.786 115.019
1 130.489 120.841 113.182
1 128.397 118.897 113.139
1 124.036 120.727 114.812
1 126.262 118.661 114.924
1 126.128 120.686 113.129
1 124.147 118.572 112.964
1 122.155 120.639 112.626
1 136.573 117.227 115.43
1 138.681 117.236 113.667
1 136.872 115.272 113.557
1 132.508 117.229 115.291
1 134.528 117.019 113.563
1 132.726 115.076 113.211
1 128.501 116.739 114.883
1 130.762 116.92 113.113
1 128.54 114.944 112.997
1 126.548 116.737 113.005
1 115.282 116.877 112.731
1 113.311 116.594 114.421
1 113.47 118.649 112.67
1 110.567 116.532 114.258
1 106.436 118.37 115.914
1 108.399 116.434 116.119
1 108.524 118.275 114.335
1 106.257 116.503 114.132
1 102.17 118.223 116.094
1 104.33 116.727 116.276
1 104.37 118.589 114.242
1 102.033 116.535 114.16
1 100.089 116.568 116.387
1 100.095 118.667 114.289
1 98.0574 116.763 114.357
1 118.989 112.471 112.644
1 115.031 114.654 114.542
1 116.99 112.47 114.562
1 117.199 114.647 112.975
1 114.315 111.995 114.121
1 110.321 114.399 116.108
1 112.251 112.055 116.283
1 112.257 114.213 114.249
1 110.227 112.2 114.254
1 106.129 114.605 116.265
1 108.124 112.382 116.182
1 108.327 114.606 114.281
1 106.069 112.533 114.109
1 102.079 114.616 116.399
1 104.1 112.498 116.347
1 103.925 114.479 114.27
1 101.999 112.688 114.354
1 98.0172 114.814 116.332
1 100.121 112.807 116.208
1 99.9729 114.793 114.227
1 97.8349 112.759 114.554
1 95.7325 112.901 116.622
1 95.8423 114.66 114.539
1 93.9141 112.698 114.581
1 118.135 107.651 114.143
1 114.286 109.988 115.975
1 116.146 107.805 116.145
1 116.349 109.735 114.14
1 114.284 107.941 114.155
1 110.237 110.269 116.322
1 112.179 107.933 116.274
1 112.178 110.15 114.048
1 110.177 108.203 114.256
1 106.093 110.513 116.194
1 107.989 108.147 116.053
1 108.215 110.291 114.31
1 106.016 108.362 114.222
1 102.151 110.495 116.48
1 104.033 108.333 116.226
1 103.866 110.48 114.39
1 102.036 108.587 114.361
1 98.0416 110.547 116.381
1 100.06 108.551 116.421
1 99.8787 110.633 114.395
1 97.8366 108.684 114.372
1 93.8341 110.796 116.609
1 95.9659 108.598 116.473
1 95.7655 110.696 114.518
1 93.6882 108.763 114.844
1 91.8165 108.804 116.716
1 91.8327 110.74 114.712
1 89.6556 108.873 114.601
1 118.132 105.567 116.056
1 119.999 105.542 114.059
1 118.06 103.439 114.111
1 114.191 105.738 116.152
1 116.231 103.602 116.259
1 116.207 105.689 114.206
1 114.03 103.714 114.147
1 110.11 106.094 116.156
1 111.963 103.89 116.171
1 112.137 105.925 114.213
1 109.946 103.954 114.151
1 106.03 106.123 116.209
1 107.937 104.122 116.243
1 108.04 106.072 114.19
1 105.92 104.225 114.249
1 101.984 106.465 116.274
1 103.894 104.317 116.397
1 103.87 106.415 114.279
1 101.848 104.568 114.282
1 97.8995 106.669 116.572
1 99.8365 104.553 116.291
1 100.005 106.567 114.362
1 97.6968 104.706 114.579
1 93.6217 106.589 116.701
1 95.6897 104.766 116.617
1 95.5578 106.648 114.552
1 93.4431 104.45 114.723
1 91.6962 104.854 116.674
1 91.3613 106.828 114.802
1 89.4181 104.92 114.765
1 118.151 101.65 116.205
1 119.898 101.535 114.134
1 117.861 99.5867 114.262
1 113.939 101.858 116.327
1 116.071 99.636 116.169
1 115.934 101.502 114.179
1 114.025 99.6752 114.344
1 109.858 101.931 116.285
1 111.996 99.824 116.409
1 111.994 101.653 114.22
1 109.592 99.9042 114.61
1 105.71 102.185 116.312
1 107.546 99.9423 116.625
1 107.858 101.974 114.358
1 105.572 99.9722 114.46
1 101.835 102.398 116.341
1 103.744 100.015 116.529
1 103.706 102.243 114.376
1 101.599 100.385 114.585
1 97.6669 102.596 116.521
1 99.6698 100.451 116.501
1 99.5303 102.598 114.385
1 97.6175 100.403 114.546
1 93.6104 102.722 116.825
1 95.6045 100.522 116.599
1 95.6972 102.606 114.597
1 93.3104 100.526 114.938
1 91.6809 100.711 116.937
1 91.3355 102.544 115.055
1 89.3331 100.691 115.173
1 117.63 95.4824 114.283
1 113.775 97.7322 116.551
1 115.694 95.8222 116.386
1 115.94 97.5409 114.245
1 113.815 95.8027 114.438
1 109.672 97.8031 116.544
1 111.858 95.6931 116.588
1 111.738 97.7758 114.532
1 109.626 95.8535 114.479
1 105.659 97.7783 116.454
1 107.743 95.8694 116.68
1 107.79 97.8184 114.46
1 105.584 95.9288 114.462
1 101.5 98.2411 116.604
1 103.423 96.1849 116.779
1 103.44 98.1044 114.373
1 101.306 96.2094 114.634
1 97.5941 98.6267 116.627
1 99.5143 96.2335 116.715
1 99.4688 98.2468 114.61
1 97.5083 96.3932 114.781
1 93.5437 98.4698 116.684
1 95.3105 96.5008 116.822
1 95.4228 98.5744 114.657
1 93.4169 96.5998 114.642
1 91.2913 98.6381 114.992
1 113.848 93.8969 116.25
1 115.801 93.6386 114.528
1 113.627 91.5956 114.788
1 109.567 93.9096 116.661
1 111.601 91.9986 116.459
1 111.51 93.7049 114.518
1 109.34 91.7475 114.63
1 105.526 93.9704 116.754
1 107.335 91.9049 116.621
1 107.452 93.8684 114.691
1 105.341 92.1047 114.619
1 101.416 94.1772 116.757
1 103.467 92.1935 116.808
1 103.502 94.2293 114.791
1 101.414 92.195 114.608
1 97.1675 94.1029 116.783
1 99.2492 92.2736 116.657
1 99.2017 94.2838 114.851
1 97.1913 92.4785 114.754
1 95.3252 94.6444 114.9
1 111.447 89.9315 114.608
1 105.288 89.8715 116.127
1 107.483 89.8013 114.815
1 101.07 90.4353 116.47
1 103.211 90.215 114.727
1 99.0657 90.5565 114.649
1 104.638 172.865 110.004
1 100.208 172.674 109.797
1 112.839 169.764 111.469
1 108.488 171.384 112.619
1 110.595 169.648 113.053
1 110.697 171.624 111.088
1 108.814 169.495 110.812
1 104.491 171.261 112.35
1 106.414 169.563 112.767
1 106.754 171.508 110.506
1 105.009 169.222 110.45
1 100.424 170.912 111.852
1 102.332 169.081 112.053
1 102.527 171.172 110.071
1 100.619 168.969 109.942
1 96.1061 170.226 110.953
1 98.3407 168.758 111.63
1 98.3959 170.805 109.721
1 96.8712 168.46 109.31
1 94.227 168.181 111
1 94.3976 170.012 108.931
1 92.6555 168.056 108.664
1 116.999 165.994 112.32
1 112.654 167.886 113.709
1 114.719 165.879 114.012
1 115.055 167.894 111.775
1 113.147 165.823 111.901
1 108.748 167.725 113.106
1 110.741 165.649 113.437
1 110.934 167.647 111.239
1 109.082 165.409 111.141
1 104.598 167.368 112.812
1 106.972 165.431 113.071
1 106.946 167.369 111.104
1 104.929 165.036 110.809
1 100.345 166.85 112.071
1 102.761 165.123 112.335
1 102.861 166.953 110.344
1 100.99 164.8 110.002
1 96.5454 166.411 111.475
1 98.7678 164.58 111.902
1 98.8631 166.556 109.661
1 96.9805 164.27 109.683
1 92.3874 166.179 110.902
1 94.3704 164.318 111.304
1 94.7496 166.227 109.221
1 92.9847 164.118 108.921
1 90.5969 163.781 110.525
1 90.8374 166.063 108.573
1 88.9034 163.975 108.302
1 120.848 162.162 112.952
1 116.854 164.018 114.476
1 119.073 161.965 114.991
1 119.097 164.046 113.028
1 117.426 161.968 112.754
1 112.914 163.869 114.026
1 115.046 161.917 114.169
1 115.153 163.81 112.156
1 113.328 161.736 111.855
1 108.965 163.526 113.535
1 111.107 161.668 113.7
1 111.245 163.597 111.581
1 109.412 161.504 111.451
1 104.966 163.087 112.924
1 107.029 161.386 113.273
1 107.405 163.213 111.153
1 105.407 161.017 110.969
1 101.048 162.782 112.26
1 103.199 160.888 112.601
1 103.203 162.79 110.643
1 101.423 160.723 110.244
1 96.7289 162.426 111.55
1 99.1803 160.576 111.815
1 99.1048 162.554 109.933
1 97.3188 160.218 109.662
1 92.7565 162.152 110.988
1 95.0332 160.202 111.266
1 95.0264 162.075 109.223
1 93.056 159.975 108.983
1 88.8551 161.618 110.681
1 90.7533 159.598 110.966
1 91.0252 162.005 108.696
1 89.1504 159.693 108.597
1 87.6215 161.664 108.326
1 121.541 158.275 112.984
1 117.178 159.869 114.682
1 119.605 158.028 114.813
1 119.522 160.04 112.808
1 117.567 158.045 112.682
1 113.243 159.669 114.059
1 115.427 157.668 114.385
1 115.269 159.877 112.462
1 113.884 157.597 111.99
1 109.1 159.475 113.433
1 111.531 157.445 113.832
1 111.473 159.429 111.779
1 109.665 157.332 111.538
1 105.253 159.024 113.028
1 107.306 157.153 113.404
1 107.519 159.101 111.125
1 105.679 157.02 111.062
1 101.2 158.739 112.408
1 103.234 156.852 112.68
1 103.395 158.892 110.719
1 101.74 156.513 110.279
1 97.2723 158.3 111.75
1 99.4976 156.45 111.988
1 99.6737 158.549 109.892
1 97.6559 156.17 109.83
1 93.1134 158.098 111.368
1 95.2755 156.077 111.596
1 95.4705 158.081 109.637
1 93.5628 156.039 109.167
1 89.0399 157.662 110.851
1 91.1023 156.095 111.071
1 91.293 157.754 108.831
1 89.5597 155.4 108.747
1 87.4265 155.453 110.184
1 87.5665 157.382 108.353
1 121.863 154.351 112.628
1 117.675 155.758 114.662
1 119.901 154.269 114.699
1 119.78 156.149 112.743
1 118.05 153.882 112.823
1 113.615 155.573 114.176
1 115.921 153.73 114.644
1 115.911 155.603 112.433
1 114.048 153.706 111.906
1 109.594 155.456 113.438
1 111.71 153.544 113.901
1 111.908 155.454 111.761
1 110.149 153.328 111.662
1 105.57 154.91 113.01
1 107.886 153.216 113.395
1 107.857 155.238 111.388
1 106.076 152.827 111.018
1 101.481 154.646 112.504
1 103.818 152.799 112.882
1 103.822 154.758 110.846
1 101.929 152.63 110.381
1 97.4674 154.178 111.967
1 99.7057 152.475 112.196
1 99.8787 154.419 110.111
1 97.785 152.25 109.993
1 93.2182 154.024 111.52
1 95.3811 152.194 111.648
1 95.5728 154.086 109.681
1 93.859 151.717 109.42
1 89.5544 153.481 110.845
1 91.6262 151.651 111.37
1 91.7622 153.789 109.257
1 90.0339 151.449 108.954
1 88.0461 151.296 110.617
1 87.5778 153.253 108.659
1 118.046 151.857 114.876
1 119.984 149.793 114.816
1 120.26 152.032 112.969
1 118.204 149.945 112.907
1 113.948 151.719 114.113
1 116.074 149.753 114.633
1 116.198 151.768 112.488
1 114.233 149.571 112.325
1 109.929 151.317 113.795
1 112.075 149.436 113.992
1 112.267 151.454 111.976
1 110.383 149.305 111.717
1 106.096 151.003 113.363
1 108.279 149.24 113.697
1 108.194 151.095 111.598
1 106.414 148.966 111.307
1 101.838 150.582 112.565
1 104.042 148.709 112.931
1 104.166 150.724 111.146
1 102.298 148.35 110.776
1 97.7281 150.201 112.025
1 100.054 148.443 112.48
1 100.076 150.397 110.256
1 98.2895 148.261 110.174
1 93.8271 149.912 111.483
1 95.9987 148.22 111.89
1 96.1229 149.993 109.595
1 94.1246 147.7 109.461
1 89.7357 149.281 111.095
1 92.1466 147.661 111.385
1 91.841 149.556 109.286
1 90.1909 147.344 109.05
1 88.2297 149.28 108.661
1 135.448 147.111 108.573
1 133.245 147.112 110.385
1 131.601 147.508 108.413
1 129.776 147.304 110.674
1 128.013 147.355 108.626
1 118.297 147.677 114.827
1 120.32 148.186 112.997
1 118.808 145.819 112.848
1 114.059 147.446 114.335
1 116.496 145.77 114.842
1 116.62 147.536 112.722
1 114.638 145.372 112.371
1 110.199 147.122 113.852
1 112.328 145.464 114.067
1 112.492 147.382 112.044
1 110.605 145.015 111.877
1 106.183 146.957 113.151
1 108.077 145.121 113.5
1 108.612 147.03 111.476
1 106.574 144.554 111.226
1 102.256 146.628 112.878
1 104.3 144.62 113.309
1 104.584 146.671 110.931
1 102.517 144.602 110.824
1 98.1559 146.32 112.198
1 100.303 144.365 112.673
1 100.49 146.361 110.653
1 98.7444 144.065 110.431
1 94.2293 145.913 111.661
1 96.4399 144.039 112.066
1 96.4364 145.971 109.785
1 94.7401 143.83 109.711
1 90.2576 145.673 111.268
1 92.5862 143.73 111.451
1 92.2781 145.485 109.319
1 90.5112 143.443 109.404
1 143.559 143.764 109.499
1 139.238 145.408 111.153
1 141.454 143.876 111.419
1 141.541 145.447 109.363
1 139.436 143.747 109.316
1 135.598 145.527 110.73
1 137.37 143.443 111.18
1 137.384 145.595 108.896
1 135.712 143.504 108.794
1 131.508 145.346 110.777
1 133.505 143.518 110.598
1 133.421 145.401 108.403
1 131.367 143.183 108.68
1 127.709 145.557 110.757
1 129.429 143.352 110.864
1 129.833 145.463 108.512
1 127.703 143.662 108.722
1 124.711 145.731 111.349
1 125.74 143.293 110.581
1 125.885 145.67 108.792
1 123.955 143.286 108.498
1 122.893 143.924 111.056
1 123.261 145.885 108.951
1 121.215 143.789 109.021
1 114.49 143.732 114.422
1 116.764 143.689 112.739
1 114.883 141.551 112.478
1 110.457 143.169 114.157
1 112.677 141.468 114.54
1 112.709 143.223 112.232
1 110.8 141.172 112.038
1 106.565 142.973 113.625
1 108.746 141.074 114.186
1 108.821 143.064 111.807
1 106.973 140.826 111.653
1 102.592 142.436 113.131
1 104.79 140.73 113.582
1 104.668 142.761 111.324
1 102.976 140.328 111.173
1 98.5617 142.202 112.425
1 100.878 140.145 112.821
1 100.941 142.25 110.822
1 98.9603 140.182 110.717
1 94.6096 141.753 112.088
1 96.7448 140.152 112.362
1 96.7615 141.934 110.201
1 94.7966 140.039 110.126
1 92.6565 141.689 109.589
1 143.508 141.789 111.628
1 145.398 139.747 111.984
1 145.508 141.798 109.713
1 143.83 139.736 109.587
1 139.538 141.714 111.227
1 141.843 139.714 111.613
1 141.68 141.864 109.343
1 139.946 139.565 109.263
1 135.499 141.443 111.088
1 137.535 139.565 111.025
1 137.584 141.444 109.101
1 135.664 139.432 108.945
1 131.601 141.338 110.694
1 133.722 139.315 110.865
1 133.704 141.381 108.568
1 131.683 139.214 108.683
1 127.758 141.056 110.654
1 129.737 139.208 110.781
1 129.522 141.306 108.614
1 127.965 139.047 108.532
1 123.708 140.979 110.494
1 125.912 138.921 110.583
1 125.918 141.224 108.618
1 123.998 139.005 108.493
1 121.054 141.571 110.966
1 121.871 139.07 110.299
1 122.015 141.031 108.356
1 119.955 138.938 108.199
1 119.049 137.511 112.902
1 119.116 139.576 110.989
1 117.049 137.618 111
1 110.761 139.454 113.965
1 112.942 139.635 112.423
1 106.91 139.024 113.73
1 109.105 138.952 111.883
1 103.063 138.773 113.5
1 105.239 138.359 111.716
1 101.084 138.29 111.029
1 148.175 136.147 110.116
1 143.752 137.73 111.925
1 145.958 136.013 112.2
1 145.991 137.981 109.936
1 144.081 135.844 109.822
1 139.785 137.72 111.587
1 141.859 135.684 111.897
1 141.891 137.687 109.54
1 139.907 135.693 109.481
1 135.783 137.486 110.999
1 137.853 135.478 111.43
1 137.946 137.529 109.113
1 136.095 135.249 109.045
1 131.696 137.168 110.746
1 133.853 135.148 110.793
1 133.855 137.091 108.975
1 131.895 135.075 108.92
1 127.885 136.968 110.646
1 129.649 135.026 110.846
1 129.867 137.143 108.627
1 128.03 134.837 108.656
1 123.795 136.837 110.439
1 125.882 134.918 110.614
1 125.919 136.949 108.39
1 124.143 134.836 108.376
1 119.618 137.015 110.206
1 121.846 134.934 110.357
1 122.021 136.739 108.313
1 119.937 134.781 108.199
1 117.375 135.535 112.689
1 117.733 134.971 110.091
1 118.084 137.024 107.95
1 115.999 134.826 107.541
1 94.9729 135.158 108.846
1 91.3767 132.96 110.445
1 147.843 134.102 112.197
1 149.96 134.173 110.295
1 148.415 131.926 110.377
1 144.116 133.942 111.879
1 146.324 131.842 112.384
1 146.407 133.97 110.102
1 144.246 131.914 110.16
1 139.979 133.816 111.485
1 141.975 131.856 111.883
1 142.098 133.849 109.732
1 140.221 131.714 109.571
1 135.876 133.381 111.23
1 138.126 131.602 111.447
1 138.036 133.42 109.288
1 135.999 131.253 109.275
1 131.936 133.227 111.029
1 133.935 131.244 111.154
1 134.049 133.142 108.983
1 132.038 131.061 108.932
1 127.819 132.844 110.703